Siesta Version  : 4.1.5
Architecture    : 
Compiler version: GNU Fortran (GCC) 10.2.0 20200723 (Cray Inc.)
Compiler flags  : ftn -g -O2 -fPIC -ftree-vectorize -fallow-argument-mismatch
PP flags        : -DMPI -DMPI_TIMING
Libraries       : 
PARALLEL version

* Running on 16 nodes in parallel
>> Start of run:   1-OCT-2023  18:11:24

                           ***********************       
                           *  WELCOME TO SIESTA  *       
                           ***********************       

reinit: Reading from WSe2.fdf

reinit: -----------------------------------------------------------------------
reinit: System Name: WSe2
reinit: -----------------------------------------------------------------------
reinit: System Label: WSe2
reinit: -----------------------------------------------------------------------

initatom: Reading input for the pseudopotentials and atomic orbitals ----------
Species number:   1 Atomic number:   74 Label: W
Species number:   2 Atomic number:   34 Label: Se

Ground state valence configuration:   6s02  5d04
Reading pseudopotential information in formatted form from W.psf

Pseudopotential generated from a relativistic atomic calculation

Valence configuration for pseudopotential generation:
6s( 2.00) rc: 2.81
6p( 0.00) rc: 2.92
5d( 4.00) rc: 2.39
5f( 0.00) rc: 2.27
Ground state valence configuration:   4s02  4p04
Reading pseudopotential information in formatted form from Se.psf

Pseudopotential generated from a relativistic atomic calculation

Valence configuration for pseudopotential generation:
4s( 2.00) rc: 3.23
4p( 4.00) rc: 2.40
4d( 0.00) rc: 2.46
4f( 0.00) rc: 2.14
For W, standard SIESTA heuristics set lmxkb to 3
 (one more than the basis l, including polarization orbitals).
Use PS.lmax or PS.KBprojectors blocks to override.
W: nkbl increased for l=1 due to the presence of a polarization orbital
For Se, standard SIESTA heuristics set lmxkb to 3
 (one more than the basis l, including polarization orbitals).
Use PS.lmax or PS.KBprojectors blocks to override.

<basis_specs>
===============================================================================
W                    Z=  74    Mass=  183.85        Charge= 0.17977+309
Lmxo=2 Lmxkb= 3    BasisType=split      Semic=F
L=0  Nsemic=0  Cnfigmx=6
          i=1  nzeta=2  polorb=1  (6s)
            splnorm:   0.15000    
               vcte:    0.0000    
               rinn:    0.0000    
               qcoe:    0.0000    
               qyuk:    0.0000    
               qwid:   0.10000E-01
                rcs:    0.0000      0.0000    
            lambdas:    1.0000      1.0000    
L=1  Nsemic=0  Cnfigmx=6
L=2  Nsemic=0  Cnfigmx=5
          i=1  nzeta=2  polorb=0  (5d)
            splnorm:   0.15000    
               vcte:    0.0000    
               rinn:    0.0000    
               qcoe:    0.0000    
               qyuk:    0.0000    
               qwid:   0.10000E-01
                rcs:    0.0000      0.0000    
            lambdas:    1.0000      1.0000    
-------------------------------------------------------------------------------
L=0  Nkbl=1  erefs: 0.17977+309
L=1  Nkbl=2  erefs: 0.17977+309 0.17977+309
L=2  Nkbl=1  erefs: 0.17977+309
L=3  Nkbl=1  erefs: 0.17977+309
===============================================================================
</basis_specs>

atom: Called for W                     (Z =  74)

read_vps: Pseudopotential generation method:
read_vps: ATM3.3    Troullier-Martins                       
Valence charge for ps generation:    6.00000

read_vps: Pseudopotential includes a core correction:
read_vps: Pseudo-core for xc-correction

xc_check: Exchange-correlation functional:
xc_check: Ceperley-Alder
V l=0 = -2*Zval/r beyond r=  3.5199
V l=1 = -2*Zval/r beyond r=  3.5199
V l=2 = -2*Zval/r beyond r=  3.5199
V l=3 = -2*Zval/r beyond r=  3.5199
All V_l potentials equal beyond r=  2.8818
This should be close to max(r_c) in ps generation
All pots = -2*Zval/r beyond r=  3.5199

VLOCAL1: 99.0% of the norm of Vloc inside      5.227 Ry
VLOCAL1: 99.9% of the norm of Vloc inside     11.912 Ry
atom: Maximum radius for 4*pi*r*r*local-pseudopot. charge    3.43297
atom: Maximum radius for r*vlocal+2*Zval:    3.02958
GHOST: No ghost state for L =  0
KBgen: More than one KB projector for l=  1
KBgen: ghost states analysis will be not performed
GHOST: No ghost state for L =  2
GHOST: No ghost state for L =  3

KBgen: Kleinman-Bylander projectors: 
   l= 0   rc=  3.700344   el= -0.432700   Ekb=  3.474593   kbcos=  0.304883
   l= 1   rc=  3.794020   el= -0.108678   Ekb=  1.904294   kbcos=  0.280050
   l= 1   rc=  4.140957   el=  0.001445   Ekb=  1.945244   kbcos=  0.009886
   l= 2   rc=  3.608982   el= -0.346216   Ekb= -3.331804   kbcos= -0.585020
   l= 3   rc=  3.988545   el=  0.003505   Ekb= -4.536687   kbcos= -0.012070

KBgen: Total number of Kleinman-Bylander projectors:   19
atom: -------------------------------------------------------------------------

atom: SANKEY-TYPE ORBITALS:
atom: Selected multiple-zeta basis: split     

SPLIT: Orbitals with angular momentum L= 0

SPLIT: Basis orbitals for state 6s

SPLIT: PAO cut-off radius determined from an
SPLIT: energy shift=  0.020000 Ry

   izeta = 1
                 lambda =    1.000000
                     rc =    6.494332
                 energy =   -0.413968
                kinetic =    0.338798
    potential(screened) =   -0.752767
       potential(ionic) =   -4.014950

   izeta = 2
                 rmatch =    6.255303
              splitnorm =    0.150000
                 energy =   -0.357055
                kinetic =    0.515839
    potential(screened) =   -0.872894
       potential(ionic) =   -4.269189

SPLIT: Orbitals with angular momentum L= 2

SPLIT: Basis orbitals for state 5d

SPLIT: PAO cut-off radius determined from an
SPLIT: energy shift=  0.020000 Ry

   izeta = 1
                 lambda =    1.000000
                     rc =    5.057783
                 energy =   -0.325827
                kinetic =    3.353505
    potential(screened) =   -3.679333
       potential(ionic) =   -7.592419

   izeta = 2
                 rmatch =    3.519875
              splitnorm =    0.150000
                 energy =   -0.127323
                kinetic =    4.699289
    potential(screened) =   -4.826612
       potential(ionic) =   -8.954791

POLgen: Perturbative polarization orbital with L=  1

POLgen: Polarization orbital for state 6s

   izeta = 1
                     rc =    6.494332
                 energy =   -0.129183
                kinetic =    0.607296
    potential(screened) =   -0.736479
       potential(ionic) =   -3.886231
atom: Total number of Sankey-type orbitals: 15

atm_pop: Valence configuration (for local Pseudopot. screening):
 6s( 2.00)                                                            
 6p( 0.00)                                                            
 5d( 4.00)                                                            
Vna: chval, zval:    6.00000   6.00000

Vna:  Cut-off radius for the neutral-atom potential:   6.494332
comcore: Pseudo-core radius Rcore=  4.634034

atom: _________________________________________________________________________

<basis_specs>
===============================================================================
Se                   Z=  34    Mass=  78.960        Charge= 0.17977+309
Lmxo=1 Lmxkb= 3    BasisType=split      Semic=F
L=0  Nsemic=0  Cnfigmx=4
          i=1  nzeta=2  polorb=0  (4s)
            splnorm:   0.15000    
               vcte:    0.0000    
               rinn:    0.0000    
               qcoe:    0.0000    
               qyuk:    0.0000    
               qwid:   0.10000E-01
                rcs:    0.0000      0.0000    
            lambdas:    1.0000      1.0000    
L=1  Nsemic=0  Cnfigmx=4
          i=1  nzeta=2  polorb=1  (4p)
            splnorm:   0.15000    
               vcte:    0.0000    
               rinn:    0.0000    
               qcoe:    0.0000    
               qyuk:    0.0000    
               qwid:   0.10000E-01
                rcs:    0.0000      0.0000    
            lambdas:    1.0000      1.0000    
-------------------------------------------------------------------------------
L=0  Nkbl=1  erefs: 0.17977+309
L=1  Nkbl=1  erefs: 0.17977+309
L=2  Nkbl=1  erefs: 0.17977+309
L=3  Nkbl=1  erefs: 0.17977+309
===============================================================================
</basis_specs>

atom: Called for Se                    (Z =  34)

read_vps: Pseudopotential generation method:
read_vps: ATM3.3    Troullier-Martins                       
Valence charge for ps generation:    6.00000

xc_check: Exchange-correlation functional:
xc_check: Ceperley-Alder
V l=0 = -2*Zval/r beyond r=  3.3572
V l=1 = -2*Zval/r beyond r=  3.1935
V l=2 = -2*Zval/r beyond r=  3.1935
V l=3 = -2*Zval/r beyond r=  3.1935
All V_l potentials equal beyond r=  3.1935
This should be close to max(r_c) in ps generation
All pots = -2*Zval/r beyond r=  3.3572

VLOCAL1: 99.0% of the norm of Vloc inside      4.256 Ry
VLOCAL1: 99.9% of the norm of Vloc inside      9.700 Ry
atom: Maximum radius for 4*pi*r*r*local-pseudopot. charge    3.80426
atom: Maximum radius for r*vlocal+2*Zval:    3.35724
GHOST: No ghost state for L =  0
GHOST: No ghost state for L =  1
GHOST: No ghost state for L =  2
GHOST: No ghost state for L =  3

KBgen: Kleinman-Bylander projectors: 
   l= 0   rc=  3.618716   el= -1.282145   Ekb= -0.640782   kbcos= -0.502453
   l= 1   rc=  3.573763   el= -0.489598   Ekb= -0.617166   kbcos= -0.696275
   l= 2   rc=  3.710326   el=  0.002371   Ekb= -0.836222   kbcos= -0.097998
   l= 3   rc=  3.804256   el=  0.003486   Ekb= -1.492430   kbcos= -0.018380

KBgen: Total number of Kleinman-Bylander projectors:   16
atom: -------------------------------------------------------------------------

atom: SANKEY-TYPE ORBITALS:
atom: Selected multiple-zeta basis: split     

SPLIT: Orbitals with angular momentum L= 0

SPLIT: Basis orbitals for state 4s

SPLIT: PAO cut-off radius determined from an
SPLIT: energy shift=  0.020000 Ry

   izeta = 1
                 lambda =    1.000000
                     rc =    4.257245
                 energy =   -1.263502
                kinetic =    0.720039
    potential(screened) =   -1.983542
       potential(ionic) =   -6.786250

   izeta = 2
                 rmatch =    3.618716
              splitnorm =    0.150000
                 energy =   -1.143583
                kinetic =    1.024349
    potential(screened) =   -2.167932
       potential(ionic) =   -7.223638

SPLIT: Orbitals with angular momentum L= 1

SPLIT: Basis orbitals for state 4p

SPLIT: PAO cut-off radius determined from an
SPLIT: energy shift=  0.020000 Ry

   izeta = 1
                 lambda =    1.000000
                     rc =    5.331464
                 energy =   -0.470507
                kinetic =    1.227372
    potential(screened) =   -1.697879
       potential(ionic) =   -5.977166

   izeta = 2
                 rmatch =    4.152132
              splitnorm =    0.150000
                 energy =   -0.349520
                kinetic =    1.725634
    potential(screened) =   -2.075154
       potential(ionic) =   -6.693644

POLgen: Perturbative polarization orbital with L=  2

POLgen: Polarization orbital for state 4p

   izeta = 1
                     rc =    5.331464
                 energy =    0.549000
                kinetic =    1.862702
    potential(screened) =   -1.313703
       potential(ionic) =   -5.243955
atom: Total number of Sankey-type orbitals: 13

atm_pop: Valence configuration (for local Pseudopot. screening):
 4s( 2.00)                                                            
 4p( 4.00)                                                            
Vna: chval, zval:    6.00000   6.00000

Vna:  Cut-off radius for the neutral-atom potential:   5.331464

atom: _________________________________________________________________________

prinput: Basis input ----------------------------------------------------------

PAO.BasisType split     

%block ChemicalSpeciesLabel
    1   74 W                       # Species index, atomic number, species label
    2   34 Se                      # Species index, atomic number, species label
%endblock ChemicalSpeciesLabel

%block PAO.Basis                 # Define Basis set
W                     2                    # Species label, number of l-shells
 n=6   0   2 P   1                   # n, l, Nzeta, Polarization, NzetaPol
   6.494      6.255   
   1.000      1.000   
 n=5   2   2                         # n, l, Nzeta 
   5.058      3.520   
   1.000      1.000   
Se                    2                    # Species label, number of l-shells
 n=4   0   2                         # n, l, Nzeta 
   4.257      3.619   
   1.000      1.000   
 n=4   1   2 P   1                   # n, l, Nzeta, Polarization, NzetaPol
   5.331      4.152   
   1.000      1.000   
%endblock PAO.Basis

prinput: ----------------------------------------------------------------------

coor:   Atomic-coordinates input format  =     Cartesian coordinates
coor:                                          (in Angstroms)

siesta: Atomic coordinates (Bohr) and species
siesta:      3.13695   1.81131   8.47748  1        1
siesta:      0.00000   3.62243  11.65394  2        2
siesta:      0.00000   3.62243   5.30153  2        3

siesta: System type = slab      

initatomlists: Number of atoms, orbitals, and projectors:      3    41    51

siesta: ******************** Simulation parameters ****************************
siesta:
siesta: The following are some of the parameters of the simulation.
siesta: A complete list of the parameters used, including default values,
siesta: can be found in file out.fdf
siesta:
redata: Spin configuration                          = spin-orbit
redata: Number of spin components                   = 8
redata: Time-Reversal Symmetry                      = F
redata: Spin spiral                                 = F
############################################################
This spin-orbit implementation uses a local approximation.
This spin-orbit implementation uses a local approximation.
From 4.2 and onwards the full non-local approximation is implemented
From 4.2 and onwards the full non-local approximation is implemented
You are strongly advised to use >=4.2 versions!
You are strongly advised to use >=4.2 versions!
############################################################
redata: Long output                                 =   F
redata: Number of Atomic Species                    =        2
redata: Charge density info will appear in .RHO file
redata: Write Mulliken Pop.                         = NO
redata: Matel table size (NRTAB)                    =     1024
redata: Mesh Cutoff                                 =   300.0000 Ry
redata: Net charge of the system                    =     0.0000 |e|
redata: Min. number of SCF Iter                     =        0
redata: Max. number of SCF Iter                     =      500
redata: SCF convergence failure will abort job
redata: SCF mix quantity                            = Hamiltonian
redata: Mix DM or H after convergence               =   F
redata: Recompute H after scf cycle                 =   F
redata: Mix DM in first SCF step                    =   T
redata: Write Pulay info on disk                    =   F
redata: New DM Occupancy tolerance                  = 0.000000000001
redata: No kicks to SCF
redata: DM Mixing Weight for Kicks                  =     0.5000
redata: Require Harris convergence for SCF          =   F
redata: Harris energy tolerance for SCF             =     0.000100 eV
redata: Require DM convergence for SCF              =   T
redata: DM tolerance for SCF                        =     0.000010
redata: Require EDM convergence for SCF             =   F
redata: EDM tolerance for SCF                       =     0.001000 eV
redata: Require H convergence for SCF               =   T
redata: Hamiltonian tolerance for SCF               =     0.000100 eV
redata: Require (free) Energy convergence for SCF   =   F
redata: (free) Energy tolerance for SCF             =     0.000100 eV
redata: Using Saved Data (generic)                  =   F
redata: Use continuation files for DM               =   T
redata: Neglect nonoverlap interactions             =   F
redata: Method of Calculation                       = Diagonalization
redata: Electronic Temperature                      =   299.9869 K
redata: Fix the spin of the system                  =   F
redata: Dynamics option                             = Single-point calculation
mix.SCF: Pulay mixing                            = Pulay
mix.SCF:    Variant                              = stable
mix.SCF:    History steps                        = 5
mix.SCF:    Linear mixing weight                 =     0.020000
mix.SCF:    Mixing weight                        =     0.020000
mix.SCF:    SVD condition                        = 0.1000E-07
mix.SCF: Spin-component mixing                   all
redata: ***********************************************************************

%block SCF.Mixers
  Pulay
%endblock SCF.Mixers

%block SCF.Mixer.Pulay
  # Mixing method
  method pulay
  variant stable

  # Mixing options
  weight 0.0200
  weight.linear 0.0200
  history 5
%endblock SCF.Mixer.Pulay

DM_history_depth set to one: no extrapolation allowed by default for geometry relaxation
Size of DM history Fstack: 1
Total number of electrons:    18.000000
Total ionic charge:    18.000000

* ProcessorY, Blocksize:    4   2


* Orbital distribution balance (max,min):     4     2


Time-reversal symmetry not used.

siesta: k-grid: Number of k-points =    81
siesta: k-grid: Cutoff (effective) =    12.500 Ang
siesta: k-grid: Supercell and displacements
siesta: k-grid:    9   0   0      0.000
siesta: k-grid:    0   9   0      0.000
siesta: k-grid:    0   0   1      0.000

diag: Algorithm                                     = D&C
diag: Parallel over k                               =   F
diag: Use parallel 2D distribution                  =   T
diag: Parallel block-size                           = 2
diag: Parallel distribution                         =     4 x     4
diag: Used triangular part                          = Lower
diag: Absolute tolerance                            =  0.100E-15
diag: Orthogonalization factor                      =  0.100E-05
diag: Memory factor                                 =  1.0000
Using current reciprocal lattice vectors for BandLinesScale
Beware any cell changes by the end of the run
Using current reciprocal lattice vectors for BandLinesScale
Beware any cell changes by the end of the run

superc: Internal auxiliary supercell:     7 x     7 x     1  =      49
superc: Number of atoms, orbitals, and projectors:    147   2009   2499


ts: **************************************************************
ts: Save H and S matrices                           =    F
ts: Save DM and EDM matrices                        =    F
ts: Only save the overlap matrix S                  =    F
ts: **************************************************************

************************ Begin: TS CHECKS AND WARNINGS ************************
************************ End: TS CHECKS AND WARNINGS **************************


                     ====================================
                        Single-point calculation
                     ====================================

superc: Internal auxiliary supercell:     7 x     7 x     1  =      49
superc: Number of atoms, orbitals, and projectors:    147   2009   2499

outcell: Unit cell vectors (Ang):
        3.320000    0.000000    0.000000
        1.660000    2.875204    0.000000
        0.000000    0.000000   25.000000

outcell: Cell vector modules (Ang)   :    3.320000    3.320000   25.000000
outcell: Cell angles (23,13,12) (deg):     90.0000     90.0000     60.0000
outcell: Cell volume (Ang**3)        :    238.6420
<dSpData1D:S at geom step 0
  <sparsity:sparsity for geom step 0
    nrows_g=41 nrows=4 sparsity=2.0601 nnzs=3463, refcount: 8>
  <dData1D:(new from dSpData1D) n=3463, refcount: 1>
refcount: 1>
new_DM -- step:     1
Initializing Density Matrix...

Attempting to read DM from file... Succeeded by increasing the number of spin-components...
DM from file:
<dSpData2D:IO-DM: WSe2.DM
  <sparsity:IO-DM: WSe2.DM
    nrows_g=41 nrows=4 sparsity=2.0601 nnzs=3463, refcount: 1>
  <dData2D:(new from dSpData2D) n=3463 m=1, refcount: 1>
refcount: 1>
DM to be used:
<dSpData2D:Re-structured SpM
  <sparsity:sparsity for geom step 0
    nrows_g=41 nrows=4 sparsity=2.0601 nnzs=3463, refcount: 9>
  <dData2D:(new in restruct) n=3463 m=8, refcount: 1>
refcount: 1>
     spin moment: S , {S} =    0.00000   0.00000   0.00000   0.00000
No. of atoms with KB's overlaping orbs in proc 0. Max # of overlaps:      32     255

Initializing spin-orbit part of the Hamiltonian
  Adding spin-orbit effects for W 
  Adding spin-orbit effects for Se


New grid distribution:   1
           1       1:   15    1:    4    1:   34
           2       1:   15    1:    4   35:   68
           3       1:   15    1:    4   69:  102
           4       1:   15    1:    4  103:  135
           5       1:   15    5:    8    1:   34
           6       1:   15    5:    8   35:   68
           7       1:   15    5:    8   69:  102
           8       1:   15    5:    8  103:  135
           9       1:   15    9:   12    1:   34
          10       1:   15    9:   12   35:   68
          11       1:   15    9:   12   69:  102
          12       1:   15    9:   12  103:  135
          13       1:   15   13:   15    1:   34
          14       1:   15   13:   15   35:   68
          15       1:   15   13:   15   69:  102
          16       1:   15   13:   15  103:  135

InitMesh: MESH =    30 x    30 x   270 =      243000
InitMesh: (bp) =    15 x    15 x   135 =       30375
InitMesh: Mesh cutoff (required, used) =   300.000   300.889 Ry
ExtMesh (bp) on 0 =    87 x    76 x   110 =      727320
New grid distribution:   2
           1       1:   15    1:   15   29:   30
           2       1:   15    1:   15   33:   34
           3       1:   15    1:   15   38:  135
           4       1:   15    1:   15   22:   22
           5       1:   15    1:   15    1:   12
           6       1:   15    1:   15   26:   27
           7       1:   15    1:   15   20:   21
           8       1:   15    1:   15   28:   28
           9       1:   15    1:   15   31:   32
          10       1:   15    1:   15   35:   37
          11       1:   15    1:   15   18:   19
          12       1:   15    1:   15   25:   25
          13       1:   15    1:   15   13:   15
          14       1:   15    1:   15   16:   17
          15       1:   15    1:   15   23:   23
          16       1:   15    1:   15   24:   24
New grid distribution:   3
           1       1:   15    1:   15   26:   28
           2       1:   15    1:   15   11:   13
           3       1:   15    1:   15   46:  135
           4       1:   15    1:   15   17:   19
           5       1:   15    1:   15    1:    4
           6       1:   15    1:   15   40:   42
           7       1:   15    1:   15   14:   16
           8       1:   15    1:   15   20:   22
           9       1:   15    1:   15   29:   31
          10       1:   15    1:   15   43:   45
          11       1:   15    1:   15    5:    7
          12       1:   15    1:   15   23:   25
          13       1:   15    1:   15   32:   34
          14       1:   15    1:   15   37:   39
          15       1:   15    1:   15    8:   10
          16       1:   15    1:   15   35:   36
Setting up quadratic distribution...
ExtMesh (bp) on 0 =    87 x    87 x    78 =      590382
PhiOnMesh: Number of (b)points on node 0 =                  450
PhiOnMesh: nlist on node 0 =                30531

stepf: Fermi-Dirac step function

siesta: Program's energy decomposition (eV):
siesta: Ebs     =      -166.298032
siesta: Eions   =       852.279455
siesta: Ena     =        43.577941
siesta: Ekin    =       343.916873
siesta: Enl     =       -96.571076
siesta: Eso     =        -0.404458
siesta: Edftu   =         0.000000
siesta: DEna    =         7.224183
siesta: DUscf   =         0.461530
siesta: DUext   =         0.000000
siesta: Exc     =      -252.265938
siesta: eta*DQ  =         0.000000
siesta: Emadel  =         0.000000
siesta: Emeta   =         0.000000
siesta: Emolmec =         0.000000
siesta: Ekinion =         0.000000
siesta: Eharris =      -806.522904
siesta: Etot    =      -806.340399
siesta: FreeEng =      -806.340399

        iscf     Eharris(eV)        E_KS(eV)     FreeEng(eV)     dDmax    Ef(eV) dHmax(eV)
   scf:    1     -806.522904     -806.340399     -806.340399  0.033262 -3.265845  0.144994
     spin moment: S , {S} =    0.00000  -0.00000  -0.00000  -0.00000
timer: Routine,Calls,Time,% = IterSCF        1       1.833  26.79
   scf:    2     -806.340661     -806.340534     -806.340534  0.000129 -3.265031  0.126821
     spin moment: S , {S} =    0.00000   0.00000   0.00000   0.00000
   scf:    3     -806.341067     -806.340962     -806.340962  0.000840 -3.259867  0.009371
     spin moment: S , {S} =    0.00000  -0.00000  -0.00000   0.00000
   scf:    4     -806.340996     -806.340987     -806.340987  0.000208 -3.098873  0.002821
     spin moment: S , {S} =    0.00000  -0.00000   0.00000  -0.00000
   scf:    5     -806.340987     -806.340987     -806.340987  0.000005 -3.098900  0.002985
     spin moment: S , {S} =    0.00000  -0.00000  -0.00000   0.00000
   scf:    6     -806.340974     -806.340982     -806.340982  0.000297 -3.097531  0.013711
     spin moment: S , {S} =    0.00000   0.00000  -0.00000   0.00000
   scf:    7     -806.340991     -806.340989     -806.340989  0.000095 -3.096768  0.000195
     spin moment: S , {S} =    0.00000   0.00000  -0.00000   0.00000
   scf:    8     -806.340989     -806.340989     -806.340989  0.000001 -3.096768  0.000081
     spin moment: S , {S} =    0.00000   0.00000  -0.00000   0.00000

SCF Convergence by DM+H criterion
max |DM_out - DM_in|         :     0.0000013034
max |H_out - H_in|      (eV) :     0.0000808558
SCF cycle converged after 8 iterations

Using DM_out to compute the final energy and forces
No. of atoms with KB's overlaping orbs in proc 0. Max # of overlaps:      32     255

siesta: E_KS(eV) =             -806.3410

siesta: E_KS - E_eggbox =      -806.3410
     spin moment: S , {S} =    0.00000   0.00000  -0.00000   0.00000

siesta: Atomic forces (eV/Ang):
----------------------------------------
   Tot   -0.000000    0.003429    0.008036
----------------------------------------
   Max    0.502370
   Res    0.235451    sqrt( Sum f_i^2 / 3N )
----------------------------------------
   Max    0.502370    constrained

Stress tensor Voigt[x,y,z,yz,xz,xy] (kbar):       22.18       22.21       10.92        0.00       -0.00       -0.00
(Free)E + p*V (eV/cell)     -809.0870
Target enthalpy (eV/cell)     -806.3410
Computing bands...

siesta: Program's energy decomposition (eV):
siesta: Ebs     =      -167.116976
siesta: Eions   =       852.279455
siesta: Ena     =        43.577941
siesta: Ekin    =       343.658984
siesta: Enl     =       -96.457973
siesta: Eso     =        -0.403674
siesta: Edftu   =         0.000000
siesta: DEna    =         7.323803
siesta: DUscf   =         0.469374
siesta: DUext   =         0.000000
siesta: Exc     =      -252.229990
siesta: eta*DQ  =         0.000000
siesta: Emadel  =         0.000000
siesta: Emeta   =         0.000000
siesta: Emolmec =         0.000000
siesta: Ekinion =         0.000000
siesta: Eharris =      -806.340989
siesta: Etot    =      -806.340989
siesta: FreeEng =      -806.340989

siesta: Final energy (eV):
siesta:  Band Struct. =    -167.116976
siesta:       Kinetic =     343.658984
siesta:       Hartree =    4004.453305
siesta:       Edftu   =       0.000000
siesta:       Eso     =      -0.403674
siesta:    Ext. field =       0.000000
siesta:   Exch.-corr. =    -252.229990
siesta:  Ion-electron =   -8286.874074
siesta:       Ion-ion =    3385.054459
siesta:       Ekinion =       0.000000
siesta:         Total =    -806.340989
siesta:         Fermi =      -3.096768

siesta: Atomic forces (eV/Ang):
siesta:      1   -0.000000    0.000257    0.014062
siesta:      2    0.000000    0.001157   -0.502370
siesta:      3    0.000000    0.002016    0.496343
siesta: ----------------------------------------
siesta:    Tot   -0.000000    0.003429    0.008036

siesta: Stress tensor (static) (eV/Ang**3):
siesta:     0.013843   -0.000000   -0.000000
siesta:    -0.000000    0.013861    0.000001
siesta:    -0.000000    0.000001    0.006817

siesta: Cell volume =        238.641960 Ang**3

siesta: Pressure (static):
siesta:                Solid            Molecule  Units
siesta:          -0.00012533         -0.00009980  Ry/Bohr**3
siesta:          -0.01150695         -0.00916346  eV/Ang**3
siesta:         -18.43635913        -14.68163663  kBar
(Free)E+ p_basis*V_orbitals  =        -804.819217
(Free)Eharris+ p_basis*V_orbitals  =        -804.819217
     spin moment: S , {S} =    0.00000   0.00000  -0.00000   0.00000

siesta: Electric dipole (a.u.)  =    0.000000   -0.000000    0.000010
siesta: Electric dipole (Debye) =    0.000000   -0.000000    0.000024

dhscf: Vacuum level (max, mean) =    0.013254    0.005197 eV

cite: Please see "WSe2.bib" for an exhaustive BiBTeX file.
cite: Please clearly indicate Siesta version in published work: 4.1.5
cite: This calculation has made use of the following articles
cite: which are encouraged to be cited in a published work.
        Primary SIESTA paper
          DOI: www.doi.org/10.1088/0953-8984/14/11/302
        Spin-orbit coupling (on-site approximation)
          DOI: www.doi.org/10.1088/0953-8984/19/19/489001

>> End of run:   1-OCT-2023  18:11:47
Job completed
Job completed
