Siesta Version  : 4.1.5
Architecture    : 
Compiler version: GNU Fortran (GCC) 10.2.0 20200723 (Cray Inc.)
Compiler flags  : ftn -g -O2 -fPIC -ftree-vectorize -fallow-argument-mismatch
PP flags        : -DMPI -DMPI_TIMING
Libraries       : 
PARALLEL version

* Running on 16 nodes in parallel
>> Start of run:   1-OCT-2023  18:11:04

                           ***********************       
                           *  WELCOME TO SIESTA  *       
                           ***********************       

reinit: Reading from WSe2_unpol.fdf

reinit: -----------------------------------------------------------------------
reinit: System Name: WSe2
reinit: -----------------------------------------------------------------------
reinit: System Label: WSe2
reinit: -----------------------------------------------------------------------

initatom: Reading input for the pseudopotentials and atomic orbitals ----------
Species number:   1 Atomic number:   74 Label: W
Species number:   2 Atomic number:   34 Label: Se

Ground state valence configuration:   6s02  5d04
Reading pseudopotential information in formatted form from W.psf

Pseudopotential generated from a relativistic atomic calculation

Valence configuration for pseudopotential generation:
6s( 2.00) rc: 2.81
6p( 0.00) rc: 2.92
5d( 4.00) rc: 2.39
5f( 0.00) rc: 2.27
Ground state valence configuration:   4s02  4p04
Reading pseudopotential information in formatted form from Se.psf

Pseudopotential generated from a relativistic atomic calculation

Valence configuration for pseudopotential generation:
4s( 2.00) rc: 3.23
4p( 4.00) rc: 2.40
4d( 0.00) rc: 2.46
4f( 0.00) rc: 2.14
For W, standard SIESTA heuristics set lmxkb to 3
 (one more than the basis l, including polarization orbitals).
Use PS.lmax or PS.KBprojectors blocks to override.
W: nkbl increased for l=1 due to the presence of a polarization orbital
For Se, standard SIESTA heuristics set lmxkb to 3
 (one more than the basis l, including polarization orbitals).
Use PS.lmax or PS.KBprojectors blocks to override.

<basis_specs>
===============================================================================
W                    Z=  74    Mass=  183.85        Charge= 0.17977+309
Lmxo=2 Lmxkb= 3    BasisType=split      Semic=F
L=0  Nsemic=0  Cnfigmx=6
          i=1  nzeta=2  polorb=1  (6s)
            splnorm:   0.15000    
               vcte:    0.0000    
               rinn:    0.0000    
               qcoe:    0.0000    
               qyuk:    0.0000    
               qwid:   0.10000E-01
                rcs:    0.0000      0.0000    
            lambdas:    1.0000      1.0000    
L=1  Nsemic=0  Cnfigmx=6
L=2  Nsemic=0  Cnfigmx=5
          i=1  nzeta=2  polorb=0  (5d)
            splnorm:   0.15000    
               vcte:    0.0000    
               rinn:    0.0000    
               qcoe:    0.0000    
               qyuk:    0.0000    
               qwid:   0.10000E-01
                rcs:    0.0000      0.0000    
            lambdas:    1.0000      1.0000    
-------------------------------------------------------------------------------
L=0  Nkbl=1  erefs: 0.17977+309
L=1  Nkbl=2  erefs: 0.17977+309 0.17977+309
L=2  Nkbl=1  erefs: 0.17977+309
L=3  Nkbl=1  erefs: 0.17977+309
===============================================================================
</basis_specs>

atom: Called for W                     (Z =  74)

read_vps: Pseudopotential generation method:
read_vps: ATM3.3    Troullier-Martins                       
Valence charge for ps generation:    6.00000

read_vps: Pseudopotential includes a core correction:
read_vps: Pseudo-core for xc-correction

xc_check: Exchange-correlation functional:
xc_check: Ceperley-Alder
V l=0 = -2*Zval/r beyond r=  3.5199
V l=1 = -2*Zval/r beyond r=  3.5199
V l=2 = -2*Zval/r beyond r=  3.5199
V l=3 = -2*Zval/r beyond r=  3.5199
All V_l potentials equal beyond r=  2.8818
This should be close to max(r_c) in ps generation
All pots = -2*Zval/r beyond r=  3.5199

VLOCAL1: 99.0% of the norm of Vloc inside      5.227 Ry
VLOCAL1: 99.9% of the norm of Vloc inside     11.912 Ry
atom: Maximum radius for 4*pi*r*r*local-pseudopot. charge    3.43297
atom: Maximum radius for r*vlocal+2*Zval:    3.02958
GHOST: No ghost state for L =  0
KBgen: More than one KB projector for l=  1
KBgen: ghost states analysis will be not performed
GHOST: No ghost state for L =  2
GHOST: No ghost state for L =  3

KBgen: Kleinman-Bylander projectors: 
   l= 0   rc=  3.700344   el= -0.432700   Ekb=  3.474593   kbcos=  0.304883
   l= 1   rc=  3.794020   el= -0.108678   Ekb=  1.904294   kbcos=  0.280050
   l= 1   rc=  4.140957   el=  0.001445   Ekb=  1.945244   kbcos=  0.009886
   l= 2   rc=  3.608982   el= -0.346216   Ekb= -3.331804   kbcos= -0.585020
   l= 3   rc=  3.988545   el=  0.003505   Ekb= -4.536687   kbcos= -0.012070

KBgen: Total number of Kleinman-Bylander projectors:   19
atom: -------------------------------------------------------------------------

atom: SANKEY-TYPE ORBITALS:
atom: Selected multiple-zeta basis: split     

SPLIT: Orbitals with angular momentum L= 0

SPLIT: Basis orbitals for state 6s

SPLIT: PAO cut-off radius determined from an
SPLIT: energy shift=  0.020000 Ry

   izeta = 1
                 lambda =    1.000000
                     rc =    6.494332
                 energy =   -0.413968
                kinetic =    0.338798
    potential(screened) =   -0.752767
       potential(ionic) =   -4.014950

   izeta = 2
                 rmatch =    6.255303
              splitnorm =    0.150000
                 energy =   -0.357055
                kinetic =    0.515839
    potential(screened) =   -0.872894
       potential(ionic) =   -4.269189

SPLIT: Orbitals with angular momentum L= 2

SPLIT: Basis orbitals for state 5d

SPLIT: PAO cut-off radius determined from an
SPLIT: energy shift=  0.020000 Ry

   izeta = 1
                 lambda =    1.000000
                     rc =    5.057783
                 energy =   -0.325827
                kinetic =    3.353505
    potential(screened) =   -3.679333
       potential(ionic) =   -7.592419

   izeta = 2
                 rmatch =    3.519875
              splitnorm =    0.150000
                 energy =   -0.127323
                kinetic =    4.699289
    potential(screened) =   -4.826612
       potential(ionic) =   -8.954791

POLgen: Perturbative polarization orbital with L=  1

POLgen: Polarization orbital for state 6s

   izeta = 1
                     rc =    6.494332
                 energy =   -0.129183
                kinetic =    0.607296
    potential(screened) =   -0.736479
       potential(ionic) =   -3.886231
atom: Total number of Sankey-type orbitals: 15

atm_pop: Valence configuration (for local Pseudopot. screening):
 6s( 2.00)                                                            
 6p( 0.00)                                                            
 5d( 4.00)                                                            
Vna: chval, zval:    6.00000   6.00000

Vna:  Cut-off radius for the neutral-atom potential:   6.494332
comcore: Pseudo-core radius Rcore=  4.634034

atom: _________________________________________________________________________

<basis_specs>
===============================================================================
Se                   Z=  34    Mass=  78.960        Charge= 0.17977+309
Lmxo=1 Lmxkb= 3    BasisType=split      Semic=F
L=0  Nsemic=0  Cnfigmx=4
          i=1  nzeta=2  polorb=0  (4s)
            splnorm:   0.15000    
               vcte:    0.0000    
               rinn:    0.0000    
               qcoe:    0.0000    
               qyuk:    0.0000    
               qwid:   0.10000E-01
                rcs:    0.0000      0.0000    
            lambdas:    1.0000      1.0000    
L=1  Nsemic=0  Cnfigmx=4
          i=1  nzeta=2  polorb=1  (4p)
            splnorm:   0.15000    
               vcte:    0.0000    
               rinn:    0.0000    
               qcoe:    0.0000    
               qyuk:    0.0000    
               qwid:   0.10000E-01
                rcs:    0.0000      0.0000    
            lambdas:    1.0000      1.0000    
-------------------------------------------------------------------------------
L=0  Nkbl=1  erefs: 0.17977+309
L=1  Nkbl=1  erefs: 0.17977+309
L=2  Nkbl=1  erefs: 0.17977+309
L=3  Nkbl=1  erefs: 0.17977+309
===============================================================================
</basis_specs>

atom: Called for Se                    (Z =  34)

read_vps: Pseudopotential generation method:
read_vps: ATM3.3    Troullier-Martins                       
Valence charge for ps generation:    6.00000

xc_check: Exchange-correlation functional:
xc_check: Ceperley-Alder
V l=0 = -2*Zval/r beyond r=  3.3572
V l=1 = -2*Zval/r beyond r=  3.1935
V l=2 = -2*Zval/r beyond r=  3.1935
V l=3 = -2*Zval/r beyond r=  3.1935
All V_l potentials equal beyond r=  3.1935
This should be close to max(r_c) in ps generation
All pots = -2*Zval/r beyond r=  3.3572

VLOCAL1: 99.0% of the norm of Vloc inside      4.256 Ry
VLOCAL1: 99.9% of the norm of Vloc inside      9.700 Ry
atom: Maximum radius for 4*pi*r*r*local-pseudopot. charge    3.80426
atom: Maximum radius for r*vlocal+2*Zval:    3.35724
GHOST: No ghost state for L =  0
GHOST: No ghost state for L =  1
GHOST: No ghost state for L =  2
GHOST: No ghost state for L =  3

KBgen: Kleinman-Bylander projectors: 
   l= 0   rc=  3.618716   el= -1.282145   Ekb= -0.640782   kbcos= -0.502453
   l= 1   rc=  3.573763   el= -0.489598   Ekb= -0.617166   kbcos= -0.696275
   l= 2   rc=  3.710326   el=  0.002371   Ekb= -0.836222   kbcos= -0.097998
   l= 3   rc=  3.804256   el=  0.003486   Ekb= -1.492430   kbcos= -0.018380

KBgen: Total number of Kleinman-Bylander projectors:   16
atom: -------------------------------------------------------------------------

atom: SANKEY-TYPE ORBITALS:
atom: Selected multiple-zeta basis: split     

SPLIT: Orbitals with angular momentum L= 0

SPLIT: Basis orbitals for state 4s

SPLIT: PAO cut-off radius determined from an
SPLIT: energy shift=  0.020000 Ry

   izeta = 1
                 lambda =    1.000000
                     rc =    4.257245
                 energy =   -1.263502
                kinetic =    0.720039
    potential(screened) =   -1.983542
       potential(ionic) =   -6.786250

   izeta = 2
                 rmatch =    3.618716
              splitnorm =    0.150000
                 energy =   -1.143583
                kinetic =    1.024349
    potential(screened) =   -2.167932
       potential(ionic) =   -7.223638

SPLIT: Orbitals with angular momentum L= 1

SPLIT: Basis orbitals for state 4p

SPLIT: PAO cut-off radius determined from an
SPLIT: energy shift=  0.020000 Ry

   izeta = 1
                 lambda =    1.000000
                     rc =    5.331464
                 energy =   -0.470507
                kinetic =    1.227372
    potential(screened) =   -1.697879
       potential(ionic) =   -5.977166

   izeta = 2
                 rmatch =    4.152132
              splitnorm =    0.150000
                 energy =   -0.349520
                kinetic =    1.725634
    potential(screened) =   -2.075154
       potential(ionic) =   -6.693644

POLgen: Perturbative polarization orbital with L=  2

POLgen: Polarization orbital for state 4p

   izeta = 1
                     rc =    5.331464
                 energy =    0.549000
                kinetic =    1.862702
    potential(screened) =   -1.313703
       potential(ionic) =   -5.243955
atom: Total number of Sankey-type orbitals: 13

atm_pop: Valence configuration (for local Pseudopot. screening):
 4s( 2.00)                                                            
 4p( 4.00)                                                            
Vna: chval, zval:    6.00000   6.00000

Vna:  Cut-off radius for the neutral-atom potential:   5.331464

atom: _________________________________________________________________________

prinput: Basis input ----------------------------------------------------------

PAO.BasisType split     

%block ChemicalSpeciesLabel
    1   74 W                       # Species index, atomic number, species label
    2   34 Se                      # Species index, atomic number, species label
%endblock ChemicalSpeciesLabel

%block PAO.Basis                 # Define Basis set
W                     2                    # Species label, number of l-shells
 n=6   0   2 P   1                   # n, l, Nzeta, Polarization, NzetaPol
   6.494      6.255   
   1.000      1.000   
 n=5   2   2                         # n, l, Nzeta 
   5.058      3.520   
   1.000      1.000   
Se                    2                    # Species label, number of l-shells
 n=4   0   2                         # n, l, Nzeta 
   4.257      3.619   
   1.000      1.000   
 n=4   1   2 P   1                   # n, l, Nzeta, Polarization, NzetaPol
   5.331      4.152   
   1.000      1.000   
%endblock PAO.Basis

prinput: ----------------------------------------------------------------------

coor:   Atomic-coordinates input format  =     Cartesian coordinates
coor:                                          (in Angstroms)

siesta: Atomic coordinates (Bohr) and species
siesta:      3.13695   1.81131   8.47748  1        1
siesta:      0.00000   3.62243  11.65394  2        2
siesta:      0.00000   3.62243   5.30153  2        3

siesta: System type = slab      

initatomlists: Number of atoms, orbitals, and projectors:      3    41    51

siesta: ******************** Simulation parameters ****************************
siesta:
siesta: The following are some of the parameters of the simulation.
siesta: A complete list of the parameters used, including default values,
siesta: can be found in file out.fdf
siesta:
redata: Spin configuration                          = none
redata: Number of spin components                   = 1
redata: Time-Reversal Symmetry                      = T
redata: Spin spiral                                 = F
redata: Long output                                 =   F
redata: Number of Atomic Species                    =        2
redata: Charge density info will appear in .RHO file
redata: Write Mulliken Pop.                         = NO
redata: Matel table size (NRTAB)                    =     1024
redata: Mesh Cutoff                                 =   300.0000 Ry
redata: Net charge of the system                    =     0.0000 |e|
redata: Min. number of SCF Iter                     =        0
redata: Max. number of SCF Iter                     =      500
redata: SCF convergence failure will abort job
redata: SCF mix quantity                            = Hamiltonian
redata: Mix DM or H after convergence               =   F
redata: Recompute H after scf cycle                 =   F
redata: Mix DM in first SCF step                    =   T
redata: Write Pulay info on disk                    =   F
redata: New DM Occupancy tolerance                  = 0.000000000001
redata: No kicks to SCF
redata: DM Mixing Weight for Kicks                  =     0.5000
redata: Require Harris convergence for SCF          =   F
redata: Harris energy tolerance for SCF             =     0.000100 eV
redata: Require DM convergence for SCF              =   T
redata: DM tolerance for SCF                        =     0.000010
redata: Require EDM convergence for SCF             =   F
redata: EDM tolerance for SCF                       =     0.001000 eV
redata: Require H convergence for SCF               =   T
redata: Hamiltonian tolerance for SCF               =     0.000100 eV
redata: Require (free) Energy convergence for SCF   =   F
redata: (free) Energy tolerance for SCF             =     0.000100 eV
redata: Using Saved Data (generic)                  =   F
redata: Use continuation files for DM               =   T
redata: Neglect nonoverlap interactions             =   F
redata: Method of Calculation                       = Diagonalization
redata: Electronic Temperature                      =   299.9869 K
redata: Fix the spin of the system                  =   F
redata: Dynamics option                             = Single-point calculation
mix.SCF: Pulay mixing                            = Pulay
mix.SCF:    Variant                              = stable
mix.SCF:    History steps                        = 5
mix.SCF:    Linear mixing weight                 =     0.020000
mix.SCF:    Mixing weight                        =     0.020000
mix.SCF:    SVD condition                        = 0.1000E-07
redata: ***********************************************************************

%block SCF.Mixers
  Pulay
%endblock SCF.Mixers

%block SCF.Mixer.Pulay
  # Mixing method
  method pulay
  variant stable

  # Mixing options
  weight 0.0200
  weight.linear 0.0200
  history 5
%endblock SCF.Mixer.Pulay

DM_history_depth set to one: no extrapolation allowed by default for geometry relaxation
Size of DM history Fstack: 1
Total number of electrons:    18.000000
Total ionic charge:    18.000000

* ProcessorY, Blocksize:    4   2


* Orbital distribution balance (max,min):     4     2

 Kpoints in:           45 . Kpoints trimmed:           41

siesta: k-grid: Number of k-points =    41
siesta: k-grid: Cutoff (effective) =    12.500 Ang
siesta: k-grid: Supercell and displacements
siesta: k-grid:    9   0   0      0.000
siesta: k-grid:    0   9   0      0.000
siesta: k-grid:    0   0   1      0.000

diag: Algorithm                                     = D&C
diag: Parallel over k                               =   F
diag: Use parallel 2D distribution                  =   T
diag: Parallel block-size                           = 2
diag: Parallel distribution                         =     4 x     4
diag: Used triangular part                          = Lower
diag: Absolute tolerance                            =  0.100E-15
diag: Orthogonalization factor                      =  0.100E-05
diag: Memory factor                                 =  1.0000
Using current reciprocal lattice vectors for BandLinesScale
Beware any cell changes by the end of the run
Using current reciprocal lattice vectors for BandLinesScale
Beware any cell changes by the end of the run

superc: Internal auxiliary supercell:     7 x     7 x     1  =      49
superc: Number of atoms, orbitals, and projectors:    147   2009   2499


ts: **************************************************************
ts: Save H and S matrices                           =    F
ts: Save DM and EDM matrices                        =    F
ts: Only save the overlap matrix S                  =    F
ts: **************************************************************

************************ Begin: TS CHECKS AND WARNINGS ************************
************************ End: TS CHECKS AND WARNINGS **************************


                     ====================================
                        Single-point calculation
                     ====================================

superc: Internal auxiliary supercell:     7 x     7 x     1  =      49
superc: Number of atoms, orbitals, and projectors:    147   2009   2499

outcell: Unit cell vectors (Ang):
        3.320000    0.000000    0.000000
        1.660000    2.875204    0.000000
        0.000000    0.000000   25.000000

outcell: Cell vector modules (Ang)   :    3.320000    3.320000   25.000000
outcell: Cell angles (23,13,12) (deg):     90.0000     90.0000     60.0000
outcell: Cell volume (Ang**3)        :    238.6420
<dSpData1D:S at geom step 0
  <sparsity:sparsity for geom step 0
    nrows_g=41 nrows=4 sparsity=2.0601 nnzs=3463, refcount: 7>
  <dData1D:(new from dSpData1D) n=3463, refcount: 1>
refcount: 1>
new_DM -- step:     1
Initializing Density Matrix...

Attempting to read DM from file... Failed...
DM filled with atomic data:
<dSpData2D:DM initialized from atoms
  <sparsity:sparsity for geom step 0
    nrows_g=41 nrows=4 sparsity=2.0601 nnzs=3463, refcount: 8>
  <dData2D:DM n=3463 m=1, refcount: 1>
refcount: 1>
No. of atoms with KB's overlaping orbs in proc 0. Max # of overlaps:      32     255
New grid distribution:   1
           1       1:   15    1:    4    1:   34
           2       1:   15    1:    4   35:   68
           3       1:   15    1:    4   69:  102
           4       1:   15    1:    4  103:  135
           5       1:   15    5:    8    1:   34
           6       1:   15    5:    8   35:   68
           7       1:   15    5:    8   69:  102
           8       1:   15    5:    8  103:  135
           9       1:   15    9:   12    1:   34
          10       1:   15    9:   12   35:   68
          11       1:   15    9:   12   69:  102
          12       1:   15    9:   12  103:  135
          13       1:   15   13:   15    1:   34
          14       1:   15   13:   15   35:   68
          15       1:   15   13:   15   69:  102
          16       1:   15   13:   15  103:  135

InitMesh: MESH =    30 x    30 x   270 =      243000
InitMesh: (bp) =    15 x    15 x   135 =       30375
InitMesh: Mesh cutoff (required, used) =   300.000   300.889 Ry
ExtMesh (bp) on 0 =    87 x    76 x   110 =      727320
New grid distribution:   2
           1       1:   15    1:   15   29:   30
           2       1:   15    1:   15   33:   34
           3       1:   15    1:   15   38:  135
           4       1:   15    1:   15   22:   22
           5       1:   15    1:   15    1:   12
           6       1:   15    1:   15   26:   27
           7       1:   15    1:   15   20:   21
           8       1:   15    1:   15   28:   28
           9       1:   15    1:   15   31:   32
          10       1:   15    1:   15   35:   37
          11       1:   15    1:   15   18:   19
          12       1:   15    1:   15   25:   25
          13       1:   15    1:   15   13:   15
          14       1:   15    1:   15   16:   17
          15       1:   15    1:   15   23:   23
          16       1:   15    1:   15   24:   24
New grid distribution:   3
           1       1:   15    1:   15   26:   28
           2       1:   15    1:   15   11:   13
           3       1:   15    1:   15   46:  135
           4       1:   15    1:   15   17:   19
           5       1:   15    1:   15    1:    4
           6       1:   15    1:   15   40:   42
           7       1:   15    1:   15   14:   16
           8       1:   15    1:   15   20:   22
           9       1:   15    1:   15   29:   31
          10       1:   15    1:   15   43:   45
          11       1:   15    1:   15    5:    7
          12       1:   15    1:   15   23:   25
          13       1:   15    1:   15   32:   34
          14       1:   15    1:   15   37:   39
          15       1:   15    1:   15    8:   10
          16       1:   15    1:   15   35:   36
Setting up quadratic distribution...
ExtMesh (bp) on 0 =    87 x    87 x    78 =      590382
PhiOnMesh: Number of (b)points on node 0 =                  450
PhiOnMesh: nlist on node 0 =                30531

stepf: Fermi-Dirac step function

siesta: Program's energy decomposition (eV):
siesta: Ebs     =      -199.117895
siesta: Eions   =       852.279455
siesta: Ena     =        43.577941
siesta: Ekin    =       326.250892
siesta: Enl     =       -88.411920
siesta: Eso     =         0.000000
siesta: Edftu   =         0.000000
siesta: DEna    =        13.651316
siesta: DUscf   =         1.943874
siesta: DUext   =         0.000000
siesta: Exc     =      -249.839868
siesta: eta*DQ  =         0.000000
siesta: Emadel  =         0.000000
siesta: Emeta   =         0.000000
siesta: Emolmec =         0.000000
siesta: Ekinion =         0.000000
siesta: Eharris =      -810.830263
siesta: Etot    =      -805.107219
siesta: FreeEng =      -805.107219

        iscf     Eharris(eV)        E_KS(eV)     FreeEng(eV)     dDmax    Ef(eV) dHmax(eV)
   scf:    1     -810.830263     -805.107219     -805.107219  1.873816 -2.827174  6.356220
timer: Routine,Calls,Time,% = IterSCF        1       0.725  12.66
   scf:    2     -805.508095     -805.312848     -805.312848  0.009853 -2.858424  5.633654
   scf:    3     -806.290270     -806.066201     -806.066201  0.069519 -3.070077  0.594453
   scf:    4     -805.979381     -806.045658     -806.045658  0.029838 -2.938000  1.913681
   scf:    5     -805.821847     -806.072171     -806.072171  0.055861 -3.521817  1.592688
   scf:    6     -805.837103     -806.083169     -806.083169  0.043154 -2.904509  1.738075
   scf:    7     -806.186491     -806.150577     -806.150577  0.016697 -2.981272  0.482533
   scf:    8     -806.159625     -806.156774     -806.156774  0.004856 -2.978011  0.113191
   scf:    9     -806.157144     -806.157077     -806.157077  0.001368 -2.982211  0.013386
   scf:   10     -806.157140     -806.157111     -806.157111  0.001266 -2.982504  0.011419
   scf:   11     -806.157118     -806.157114     -806.157114  0.000241 -2.982217  0.011147
   scf:   12     -806.157170     -806.157146     -806.157146  0.001740 -2.977612  0.008838
   scf:   13     -806.157148     -806.157147     -806.157147  0.000166 -2.977300  0.008022
   scf:   14     -806.157147     -806.157147     -806.157147  0.000253 -2.976936  0.004609
   scf:   15     -806.157147     -806.157147     -806.157147  0.000294 -2.976190  0.004285
   scf:   16     -806.157147     -806.157147     -806.157147  0.000067 -2.975902  0.003876
   scf:   17     -806.157148     -806.157148     -806.157148  0.000067 -2.975516  0.002338
   scf:   18     -806.157148     -806.157148     -806.157148  0.000010 -2.975531  0.002269
   scf:   19     -806.157149     -806.157149     -806.157149  0.000130 -2.975416  0.001338
   scf:   20     -806.157149     -806.157149     -806.157149  0.000028 -2.975355  0.001251
   scf:   21     -806.157150     -806.157149     -806.157149  0.000264 -2.974833  0.000435
   scf:   22     -806.157149     -806.157149     -806.157149  0.000001 -2.974832  0.000429
   scf:   23     -806.157149     -806.157149     -806.157149  0.000021 -2.974785  0.000214
   scf:   24     -806.157149     -806.157149     -806.157149  0.000006 -2.974763  0.000159
   scf:   25     -806.157149     -806.157149     -806.157149  0.000006 -2.974758  0.000137
   scf:   26     -806.157149     -806.157149     -806.157149  0.000004 -2.974764  0.000129
   scf:   27     -806.157149     -806.157149     -806.157149  0.000006 -2.974771  0.000102
   scf:   28     -806.157149     -806.157149     -806.157149  0.000005 -2.974764  0.000093

SCF Convergence by DM+H criterion
max |DM_out - DM_in|         :     0.0000047522
max |H_out - H_in|      (eV) :     0.0000929966
SCF cycle converged after 28 iterations

Using DM_out to compute the final energy and forces
No. of atoms with KB's overlaping orbs in proc 0. Max # of overlaps:      32     255

siesta: E_KS(eV) =             -806.1571

siesta: E_KS - E_eggbox =      -806.1571

siesta: Atomic forces (eV/Ang):
----------------------------------------
   Tot   -0.000000    0.003332    0.009119
----------------------------------------
   Max    0.475416
   Res    0.222973    sqrt( Sum f_i^2 / 3N )
----------------------------------------
   Max    0.475416    constrained

Stress tensor Voigt[x,y,z,yz,xz,xy] (kbar):       22.14       22.17       10.32        0.00       -0.00       -0.00
(Free)E + p*V (eV/cell)     -808.8696
Target enthalpy (eV/cell)     -806.1571
Computing bands...

siesta: Program's energy decomposition (eV):
siesta: Ebs     =      -167.109587
siesta: Eions   =       852.279455
siesta: Ena     =        43.577941
siesta: Ekin    =       343.448604
siesta: Enl     =       -96.507541
siesta: Eso     =         0.000000
siesta: Edftu   =         0.000000
siesta: DEna    =         7.350618
siesta: DUscf   =         0.471088
siesta: DUext   =         0.000000
siesta: Exc     =      -252.218405
siesta: eta*DQ  =         0.000000
siesta: Emadel  =         0.000000
siesta: Emeta   =         0.000000
siesta: Emolmec =         0.000000
siesta: Ekinion =         0.000000
siesta: Eharris =      -806.157149
siesta: Etot    =      -806.157149
siesta: FreeEng =      -806.157149

siesta: Final energy (eV):
siesta:  Band Struct. =    -167.109587
siesta:       Kinetic =     343.448604
siesta:       Hartree =    4004.277882
siesta:       Edftu   =       0.000000
siesta:       Eso     =       0.000000
siesta:    Ext. field =       0.000000
siesta:   Exch.-corr. =    -252.218405
siesta:  Ion-electron =   -8286.719690
siesta:       Ion-ion =    3385.054459
siesta:       Ekinion =       0.000000
siesta:         Total =    -806.157149
siesta:         Fermi =      -2.974764

siesta: Atomic forces (eV/Ang):
siesta:      1   -0.000000    0.000267    0.014189
siesta:      2    0.000000    0.000999   -0.475416
siesta:      3    0.000000    0.002066    0.470347
siesta: ----------------------------------------
siesta:    Tot   -0.000000    0.003332    0.009119

siesta: Stress tensor (static) (eV/Ang**3):
siesta:     0.013820   -0.000000   -0.000000
siesta:    -0.000000    0.013838    0.000003
siesta:    -0.000000    0.000003    0.006441

siesta: Cell volume =        238.641960 Ang**3

siesta: Pressure (static):
siesta:                Solid            Molecule  Units
siesta:          -0.00012379         -0.00009962  Ry/Bohr**3
siesta:          -0.01136626         -0.00914703  eV/Ang**3
siesta:         -18.21096081        -14.65531498  kBar
(Free)E+ p_basis*V_orbitals  =        -804.635378
(Free)Eharris+ p_basis*V_orbitals  =        -804.635378

siesta: Electric dipole (a.u.)  =    0.000000   -0.000000    0.000004
siesta: Electric dipole (Debye) =    0.000000   -0.000000    0.000011

dhscf: Vacuum level (max, mean) =    0.015788    0.008101 eV

cite: Please see "WSe2.bib" for an exhaustive BiBTeX file.
cite: Please clearly indicate Siesta version in published work: 4.1.5
cite: This calculation has made use of the following articles
cite: which are encouraged to be cited in a published work.
        Primary SIESTA paper
          DOI: www.doi.org/10.1088/0953-8984/14/11/302

>> End of run:   1-OCT-2023  18:11:23
Job completed
Job completed
